LAMMPS (29 Oct 2020)
#-------------------------- Initial Setup -------------------------------------#
log log.log
