units       lj
atom_style  dipole
dimension   3
boundary    p p p
timestep    0.01
#------------------------------------------------------------------------------#
#-------------------------- Atomic Setup --------------------------------------#
region film block 0 40 0 4 0 16
region film2 block 0 70 0 80 0 80
create_box 2 film2
Created orthogonal box = (0.0000000 0.0000000 0.0000000) to (70.000000 80.000000 80.000000)
  1 by 1 by 1 MPI processor grid
create_atoms 1 random 2540 2 film
Created 2540 atoms
  create_atoms CPU = 0.001 seconds
create_atoms 2 random 2540 10002 film
Created 2540 atoms
  create_atoms CPU = 0.000 seconds
mass 1 1
mass 2 1
set atom * charge 10
Setting atom values ...
  5080 settings made for charge
neigh_modify every 1 delay 0 check yes
#pair_style lj/cut/dipole/cut 2.5
#pair_coeff 1 1 1 1 1.5
#pair_coeff 1 2 1.5 .8 2
#pair_coeff 2 2 0.5 .88 2.2
minimize 1.0e-4 1.0e-6 1000 1000
WARNING: No pairwise cutoff or binsize set. Atom sorting therefore disabled. (../atom.cpp:2115)
WARNING: Communication cutoff is 0.0. No ghost atoms will be generated. Atoms may get lost. (../comm_brick.cpp:167)
Per MPI rank memory allocation (min/avg/max) = 4.172 | 4.172 | 4.172 Mbytes
Step Temp E_pair E_mol TotEng Press 
       0            0            0            0            0            0 
       1            0            0            0            0            0 
Loop time of 0.000138998 on 1 procs for 1 steps with 5080 atoms

92.1% CPU use with 1 MPI tasks x no OpenMP threads

Minimization stats:
  Stopping criterion = search direction is not downhill
  Energy initial, next-to-last, final = 
                     0                  0                  0
  Force two-norm initial, final = 0.0000000 0.0000000
  Force max component initial, final = 0.0000000 0.0000000
  Final line search alpha, max atom move = 0.0000000 0.0000000
  Iterations, force evaluations = 1 0

MPI task timing breakdown:
Section |  min time  |  avg time  |  max time  |%varavg| %total
---------------------------------------------------------------
Pair    | 0          | 0          | 0          |   0.0 |  0.00
Neigh   | 0          | 0          | 0          |   0.0 |  0.00
Comm    | 7.1526e-06 | 7.1526e-06 | 7.1526e-06 |   0.0 |  5.15
Output  | 0          | 0          | 0          |   0.0 |  0.00
Modify  | 0          | 0          | 0          |   0.0 |  0.00
Other   |            | 0.0001318  |            |       | 94.85

Nlocal:        5080.00 ave        5080 max        5080 min
Histogram: 1 0 0 0 0 0 0 0 0 0
Nghost:        0.00000 ave           0 max           0 min
Histogram: 1 0 0 0 0 0 0 0 0 0
Neighs:        0.00000 ave           0 max           0 min
Histogram: 1 0 0 0 0 0 0 0 0 0

Total # of neighbors = 0
Ave neighs/atom = 0.0000000
Neighbor list builds = 0
Dangerous builds = 0

#-------------------------------- Outputs -------------------------------------#
thermo 5000
dump 3 all xyz 1000 traj.xyz
thermo_style custom step temp press density lx ly lz



#------------------------------------------------------------------------------#
#------------------------- Running the Simulation -----------------------------#

#fix 1 all nve/limit 0.1
#fix 2 all langevin 2.0 2.0 0.5 1530917 zero yes
#velocity all create 2.0 4928351 mom yes rot yes dist gaussian
#run 10000
#unfix 1
#unfix 2

#------------------------------------------------------------------------------#
#fix 10 all nvt temp 3 0.03 $(100.0*dt)
#run 10000
#unfix 10
#change_box all y final -40 40
#fix 20 all npt temp 0.03 0.03 $(100.0*dt) z 0 0 $(100.0*dt) x 0 0 $(100.0*dt)
#run 10000
#unfix 20
#fix 40 all nvt temp 0.03 0.03 $(100.0*dt)
#run 10000
#unfix 40

#fix 50 all propel/self dipole 40.0
#run 5000
fix 10 all efield 0.0 0.0 1.0
run 50000
WARNING: Communication cutoff is 0.0. No ghost atoms will be generated. Atoms may get lost. (../comm_brick.cpp:167)
Per MPI rank memory allocation (min/avg/max) = 3.047 | 3.047 | 3.047 Mbytes
Step Temp Press Density Lx Ly Lz 
       1            0            0  0.011339286           70           80           80 
    5000            0            0  0.011339286           70           80           80 
   10000            0            0  0.011339286           70           80           80 
   15000            0            0  0.011339286           70           80           80 
   20000            0            0  0.011339286           70           80           80 
   25000            0            0  0.011339286           70           80           80 
   30000            0            0  0.011339286           70           80           80 
   35000            0            0  0.011339286           70           80           80 
   40000            0            0  0.011339286           70           80           80 
   45000            0            0  0.011339286           70           80           80 
   50000            0            0  0.011339286           70           80           80 
   50001            0            0  0.011339286           70           80           80 
Loop time of 4.18764 on 1 procs for 50000 steps with 5080 atoms

Performance: 10316065.499 tau/day, 11939.891 timesteps/s
97.4% CPU use with 1 MPI tasks x no OpenMP threads

MPI task timing breakdown:
Section |  min time  |  avg time  |  max time  |%varavg| %total
---------------------------------------------------------------
Pair    | 0          | 0          | 0          |   0.0 |  0.00
Neigh   | 0          | 0          | 0          |   0.0 |  0.00
Comm    | 0.016101   | 0.016101   | 0.016101   |   0.0 |  0.38
Output  | 0.16239    | 0.16239    | 0.16239    |   0.0 |  3.88
Modify  | 3.4224     | 3.4224     | 3.4224     |   0.0 | 81.73
Other   |            | 0.5868     |            |       | 14.01

Nlocal:        5080.00 ave        5080 max        5080 min
Histogram: 1 0 0 0 0 0 0 0 0 0
Nghost:        0.00000 ave           0 max           0 min
Histogram: 1 0 0 0 0 0 0 0 0 0
Neighs:        0.00000 ave           0 max           0 min
Histogram: 1 0 0 0 0 0 0 0 0 0

Total # of neighbors = 0
Ave neighs/atom = 0.0000000
Neighbor list builds = 0
Dangerous builds = 0
Total wall time: 0:00:04
